! TOUCHSTONE file generated by CST DESIGN STUDIO
! Date and time: Tue Mar 24 10:07:48 2026
! Project name: C:\Users\ilya\AppData\Local\Temp\CSTDE1\Temp\DE25\Untitled_0.cst
! Tree item: Tasks\SPara1\S-Parameters
! Header version: 2024
! Port assignment regex: !\s*Touchstone port\s*([0-9]+)\s*=\s*(CST MWS port|CST DES external port|CST DES block port)\s*(.+)\s* \(\"(.*)\"\)(\s*mode\s*([0-9]+))?.*
! Touchstone port assignment:
! Touchstone port 1 = CST DES external port 1 ("")
! Touchstone port 2 = CST DES external port 2 ("")
! Touchstone port 3 = CST DES external port 3 ("")
! Touchstone port 4 = CST DES external port 4 ("")
# GHz S MA R 50
1                    0.002307179     -162.599374      0.971659009      107.400626      0.166944268     -161.948837      0.167341143     -71.9488374
                     0.971659009      107.400626      0.002307179     -162.599374      0.167341143     -71.9488374      0.166944268     -161.948837
                     0.166944268     -161.948837      0.167341143     -71.9488374      0.971661748     -161.298301   9.34755854e-18     -31.9439465
                     0.167341143     -71.9488374      0.166944268     -161.948837   1.78339142e-18      122.510853      0.971661748     -161.298301
1.002               0.0023066217     -162.847163      0.971424302      107.152837      0.167624211     -162.047094      0.168022703     -72.0470939
                     0.971424302      107.152837     0.0023066217     -162.847163      0.168022703     -72.0470939      0.167624211     -162.047094
                     0.167624211     -162.047094      0.168022703     -72.0470939      0.971427041     -161.247025   9.46593966e-18     -33.3381617
                     0.168022703     -72.0470939      0.167624211     -162.047094   1.90167312e-25     -106.600241      0.971427041     -161.247025
1.004               0.0023060605     -163.094654      0.971187957      106.905346      0.168305956     -162.145147      0.168706069     -72.1451473
                     0.971187957      106.905346     0.0023060605     -163.094654      0.168706069     -72.1451473      0.168305956     -162.145147
                     0.168305956     -162.145147      0.168706069     -72.1451473      0.971190695      -161.19564   9.58808645e-18     -34.7021874
                     0.168706069     -72.1451473      0.168305956     -162.145147   3.70551515e-25     -106.599256      0.971190695      -161.19564
1.006               0.0023054954     -163.341849      0.970949964      106.658151      0.168989509     -162.242997      0.169391247     -72.2429975
                     0.970949964      106.658151     0.0023054954     -163.341849      0.169391247     -72.2429975      0.168989509     -162.242997
                     0.168989509     -162.242997      0.169391247     -72.2429975      0.970952703     -161.144146   9.71383242e-18     -36.0362385
                     0.169391247     -72.2429975      0.168989509     -162.242997   5.41259837e-25     -106.598268      0.970952703     -161.144146
1.008              0.00230492635     -163.588746      0.970710313      106.411254      0.169674875     -162.340644      0.170078242     -72.3406441
                     0.970710313      106.411254    0.00230492635     -163.588746      0.170078242     -72.3406441      0.169674875     -162.340644
                     0.169674875     -162.340644      0.170078242     -72.3406441      0.970713051     -161.092542   9.84301382e-18     -37.3406133
                     0.170078242     -72.3406441      0.169674875     -162.340644   7.02400523e-25      -106.59728      0.970713051     -161.092542
1.01               0.00230435334     -163.835346      0.970468993      106.164654      0.170362057     -162.438087      0.170767058     -72.4380869
                     0.970468993      106.164654    0.00230435334     -163.835346      0.170767058     -72.4380869      0.170362057     -162.438087
                     0.170362057     -162.438087      0.170767058     -72.4380869      0.970471731     -161.040828   9.97547005e-18     -38.6156836
                     0.170767058     -72.4380869      0.170362057     -162.438087   8.54082892e-25      -106.59629      0.970471731     -161.040828
1.012              0.00230377635     -164.081649      0.970225994      105.918351      0.171051062     -162.535326      0.171457701     -72.5353256
                     0.970225994      105.918351    0.00230377635     -164.081649      0.171457701     -72.5353256      0.171051062     -162.535326
                     0.171051062     -162.535326      0.171457701     -72.5353256      0.970228731     -160.989003   1.01110439e-17     -39.8618845
                     0.171457701     -72.5353256      0.171051062     -162.535326   9.96417243e-25       -106.5953      0.970228731     -160.989003
1.014              0.00230319533     -164.327654      0.969981303      105.672346      0.171741895      -162.63236      0.172150175     -72.6323601
                     0.969981303      105.672346    0.00230319533     -164.327654      0.172150175     -72.6323601      0.171741895      -162.63236
                     0.171741895      -162.63236      0.172150175     -72.6323601       0.96998404     -160.937066   1.02495819e-17     -41.0797053
                     0.172150175     -72.6323601      0.171741895      -162.63236   1.12951488e-24     -106.594309       0.96998404     -160.937066
1.016              0.00230261028     -164.573361      0.969734911      105.426639      0.172434559      -162.72919      0.172844487     -72.7291899
                     0.969734911      105.426639    0.00230261028     -164.573361      0.172844487     -72.7291899      0.172434559      -162.72919
                     0.172434559      -162.72919      0.172844487     -72.7291899      0.969737648     -160.885018   1.03909342e-17      -42.269681
                     0.172844487     -72.7291899      0.172434559      -162.72919   1.25348814e-24     -106.593317      0.969737648     -160.885018
1.018              0.00230202117     -164.818772      0.969486807      105.181228      0.173129061     -162.825815       0.17354064     -72.8258148
                     0.969486807      105.181228    0.00230202117     -164.818772       0.17354064     -72.8258148      0.173129061     -162.825815
                     0.173129061     -162.825815       0.17354064     -72.8258148      0.969489543     -160.832858   1.05349554e-17     -43.4323843
                      0.17354064     -72.8258148      0.173129061     -162.825815   1.36845035e-24     -106.592324      0.969489543     -160.832858
1.02               0.00230142796     -165.063885      0.969236979      104.936115      0.173825406     -162.922235       0.17423864     -72.9222347
                     0.969236979      104.936115    0.00230142796     -165.063885       0.17423864     -72.9222347      0.173825406     -162.922235
                     0.173825406     -162.922235       0.17423864     -72.9222347      0.969239714     -160.780585   1.06815036e-17     -44.5684183
                      0.17423864     -72.9222347      0.173825406     -162.922235   1.47451589e-24     -106.591331      0.969239714     -160.780585
1.022              0.00230083063       -165.3087      0.968985416        104.6913      0.174523598     -163.018449      0.174938491     -73.0184491
                     0.968985416        104.6913    0.00230083063       -165.3087      0.174938491     -73.0184491      0.174523598     -163.018449
                     0.174523598     -163.018449      0.174938491     -73.0184491      0.968988151     -160.728198   1.08304414e-17       -45.67841
                     0.174938491     -73.0184491      0.174523598     -163.018449   1.57180012e-24     -106.590336      0.968988151     -160.728198
1.024              0.00230022915     -165.553217      0.968732108      104.446783      0.175223642     -163.114458        0.1756402     -73.1144578
                     0.968732108      104.446783    0.00230022915     -165.553217        0.1756402     -73.1144578      0.175223642     -163.114458
                     0.175223642     -163.114458        0.1756402     -73.1144578      0.968734842     -160.675698   1.09816354e-17     -46.7630044
                       0.1756402     -73.1144578      0.175223642     -163.114458    1.6604194e-24      -106.58934      0.968734842     -160.675698
1.026              0.00229962351     -165.797437      0.968477042      104.202563      0.175925544     -163.210261       0.17634377     -73.2102606
                     0.968477042      104.202563    0.00229962351     -165.797437       0.17634377     -73.2102606      0.175925544     -163.210261
                     0.175925544     -163.210261       0.17634377     -73.2102606      0.968479776     -160.623084   1.11349562e-17     -47.8228591
                      0.17634377     -73.2102606      0.175925544     -163.210261   1.74049111e-24     -106.588344      0.968479776     -160.623084
1.028              0.00229901366     -166.041359      0.968220208      103.958641      0.176629308     -163.305857      0.177049208     -73.3058571
                     0.968220208      103.958641    0.00229901366     -166.041359      0.177049208     -73.3058571      0.176629308     -163.305857
                     0.176629308     -163.305857      0.177049208     -73.3058571      0.968222941     -160.570355   1.12902785e-17     -48.8586398
                     0.177049208     -73.3058571      0.176629308     -163.305857   1.81213364e-24     -106.587346      0.968222941     -160.570355
1.03               0.00229839959     -166.284983      0.967961595      103.715017      0.177334941     -163.401247      0.177756518      -73.401247
                     0.967961595      103.715017    0.00229839959     -166.284983      0.177756518      -73.401247      0.177334941     -163.401247
                     0.177334941     -163.401247      0.177756518      -73.401247      0.967964327     -160.517511    1.1447481e-17     -49.8710158
                     0.177756518      -73.401247      0.177334941     -163.401247   1.87546633e-24     -106.586348      0.967964327     -160.517511
1.032              0.00229778126     -166.528309      0.967701189      103.471691      0.178042446      -163.49643      0.178465705     -73.4964301
                     0.967701189      103.471691    0.00229778126     -166.528309      0.178465705     -73.4964301      0.178042446      -163.49643
                     0.178042446      -163.49643      0.178465705     -73.4964301      0.967703921     -160.464551   1.16064463e-17     -50.8606569
                     0.178465705     -73.4964301      0.178042446      -163.49643   1.93060955e-24     -106.585349      0.967703921     -160.464551
1.034              0.00229715866     -166.771338      0.967438981      103.228662      0.178751828     -163.591406      0.179176774     -73.5914061
                     0.967438981      103.228662    0.00229715866     -166.771338      0.179176774     -73.5914061      0.178751828     -163.591406
                     0.178751828     -163.591406      0.179176774     -73.5914061      0.967441712     -160.411474   1.17670605e-17     -51.8282297
                     0.179176774     -73.5914061      0.178751828     -163.591406   1.97768467e-24     -106.584349      0.967441712     -160.411474
1.036              0.00229653174     -167.014068      0.967174958      102.985932      0.179463094     -163.686175      0.179889731     -73.6861746
                     0.967174958      102.985932    0.00229653174     -167.014068      0.179889731     -73.6861746      0.179463094     -163.686175
                     0.179463094     -163.686175      0.179889731     -73.6861746      0.967177689     -160.358281   1.19292137e-17     -52.7743953
                     0.179889731     -73.6861746      0.179463094     -163.686175   2.01681402e-24     -106.583348      0.967177689     -160.358281
1.038              0.00229590049     -167.256499      0.966909109      102.743501      0.180176248     -163.780735       0.18060458     -73.7807354
                     0.966909109      102.743501    0.00229590049     -167.256499       0.18060458     -73.7807354      0.180176248     -163.780735
                     0.180176248     -163.780735       0.18060458     -73.7807354      0.966911839     -160.304971   1.20927994e-17      -53.699807
                      0.18060458     -73.7807354      0.180176248     -163.780735   2.04812094e-24     -106.582346      0.966911839     -160.304971
1.04               0.00229526487     -167.498633      0.966641422      102.501367      0.180891296     -163.875088      0.181321327     -73.8750881
                     0.966641422      102.501367    0.00229526487     -167.498633      0.181321327     -73.8750881      0.180891296     -163.875088
                     0.180891296     -163.875088      0.181321327     -73.8750881      0.966644151     -160.251543   1.22577142e-17     -54.6051078
                     0.181321327     -73.8750881      0.180891296     -163.875088   2.07172971e-24     -106.581344      0.966644151     -160.251543
1.042              0.00229462486     -167.740468      0.966371885      102.259532      0.181608241     -163.969232      0.182039977     -73.9692325
                     0.966371885      102.259532    0.00229462486     -167.740468      0.182039977     -73.9692325      0.181608241     -163.969232
                     0.181608241     -163.969232      0.182039977     -73.9692325      0.966374613     -160.197997   1.24238584e-17     -55.4909296
                     0.182039977     -73.9692325      0.181608241     -163.969232   2.08776559e-24      -106.58034      0.966374613     -160.197997
1.044              0.00229398043     -167.982004      0.966100486      102.017996      0.182327091     -164.063168      0.182760536     -74.0631681
                     0.966100486      102.017996    0.00229398043     -167.982004      0.182760536     -74.0631681      0.182327091     -164.063168
                     0.182327091     -164.063168      0.182760536     -74.0631681      0.966103212     -160.144332   1.25911351e-17     -56.3578913
                     0.182760536     -74.0631681      0.182327091     -164.063168   2.09635483e-24     -106.579336      0.966103212     -160.144332
1.046              0.00229333155     -168.223242      0.965827212      101.776758      0.183047849     -164.156895      0.183483007     -74.1568948
                     0.965827212      101.776758    0.00229333155     -168.223242      0.183483007     -74.1568948      0.183047849     -164.156895
                     0.183047849     -164.156895      0.183483007     -74.1568948      0.965829938     -160.090548   1.27594505e-17     -57.2065978
                     0.183483007     -74.1568948      0.183047849     -164.156895   2.09762465e-24     -106.578331      0.965829938     -160.090548
1.048              0.00229267819      -168.46418      0.965552053       101.53582      0.183770521     -164.250412      0.184207397     -74.2504122
                     0.965552053       101.53582    0.00229267819      -168.46418      0.184207397     -74.2504122      0.183770521     -164.250412
                     0.183770521     -164.250412      0.184207397     -74.2504122      0.965554778     -160.036644   1.29287135e-17     -58.0376392
                     0.184207397     -74.2504122      0.183770521     -164.250412   2.09170319e-24     -106.577325      0.965554778     -160.036644
1.05               0.00229202033      -168.70482      0.965274995       101.29518      0.184495112      -164.34372      0.184933711     -74.3437199
                     0.965274995       101.29518    0.00229202033      -168.70482      0.184933711     -74.3437199      0.184495112      -164.34372
                     0.184495112      -164.34372      0.184933711     -74.3437199      0.965277719     -159.982619   1.30988358e-17     -58.8515904
                     0.184933711     -74.3437199      0.184495112      -164.34372   2.07871955e-24     -106.576318      0.965277719     -159.982619
1.052              0.00229135792     -168.945161      0.964996026      101.054839      0.185221628     -164.436818      0.185661954     -74.4368176
                     0.964996026      101.054839    0.00229135792     -168.945161      0.185661954     -74.4368176      0.185221628     -164.436818
                     0.185221628     -164.436818      0.185661954     -74.4368176      0.964998749     -159.928474   1.32697315e-17     -59.6490101
                     0.185661954     -74.4368176      0.185221628     -164.436818    2.0588038e-24     -106.575311      0.964998749     -159.928474
1.054              0.00229069095     -169.185202      0.964715134      100.814798      0.185950073     -164.529705      0.186392131      -74.529705
                     0.964715134      100.814798    0.00229069095     -169.185202      0.186392131      -74.529705      0.185950073     -164.529705
                     0.185950073     -164.529705      0.186392131      -74.529705      0.964717857     -159.874207   1.34413172e-17     -60.4304408
                     0.186392131      -74.529705      0.185950073     -164.529705   2.03208686e-24     -106.574302      0.964717857     -159.874207
1.056              0.00229001939     -169.424944      0.964432306      100.575056      0.186680453     -164.622382      0.187124247     -74.6223817
                     0.964432306      100.575056    0.00229001939     -169.424944      0.187124247     -74.6223817      0.186680453     -164.622382
                     0.186680453     -164.622382      0.187124247     -74.6223817      0.964435028     -159.819819   1.36135117e-17     -61.1964087
                     0.187124247     -74.6223817      0.186680453     -164.622382   1.99870072e-24     -106.573293      0.964435028     -159.819819
1.058              0.00228934319     -169.664387      0.964147531      100.335613      0.187412772     -164.714847      0.187858308     -74.7148474
                     0.964147531      100.335613    0.00228934319     -169.664387      0.187858308     -74.7148474      0.187412772     -164.714847
                     0.187412772     -164.714847      0.187858308     -74.7148474      0.964150252     -159.765308   1.37862359e-17     -61.9474232
                     0.187858308     -74.7148474      0.187412772     -164.714847   1.95877815e-24     -106.572283      0.964150252     -159.765308
1.06               0.00228866235      -169.90353      0.963860794       100.09647      0.188147037     -164.807102      0.188594318     -74.8071018
                     0.963860794       100.09647    0.00228866235      -169.90353      0.188594318     -74.8071018      0.188147037     -164.807102
                     0.188147037     -164.807102      0.188594318     -74.8071018      0.963863514     -159.710674   1.39594128e-17     -62.6839774
                     0.188594318     -74.8071018      0.188147037     -164.807102   1.91245293e-24     -106.571273      0.963863514     -159.710674
1.062              0.00228797681     -170.142372      0.963572085      99.8576275      0.188883253     -164.899145      0.189332284     -74.8991446
                     0.963572085      99.8576275    0.00228797681     -170.142372      0.189332284     -74.8991446      0.188883253     -164.899145
                     0.188883253     -164.899145      0.189332284     -74.8991446      0.963574804     -159.655916   1.41329672e-17     -63.4065478
                     0.189332284     -74.8991446      0.188883253     -164.899145   1.85985971e-24     -106.570261      0.963574804     -159.655916
1.064              0.00228728656     -170.380915      0.963281388      99.6190847      0.189621424     -164.990975       0.19007221     -74.9909752
                     0.963281388      99.6190847    0.00228728656     -170.380915       0.19007221     -74.9909752      0.189621424     -164.990975
                     0.189621424     -164.990975       0.19007221     -74.9909752      0.963284106     -159.601035   1.43068254e-17     -64.1155945
                      0.19007221     -74.9909752      0.189621424     -164.990975     1.801134e-24     -106.569249      0.963284106     -159.601035
1.066              0.00228659156     -170.619158      0.962988693      99.3808422      0.190361556     -165.082593      0.190814101     -75.0825935
                     0.962988693      99.3808422    0.00228659156     -170.619158      0.190814101     -75.0825935      0.190361556     -165.082593
                     0.190361556     -165.082593      0.190814101     -75.0825935       0.96299141     -159.546029   1.44809158e-17     -64.8115617
                     0.190814101     -75.0825935      0.190361556     -165.082593   1.73641227e-24     -106.568236       0.96299141     -159.546029
1.068              0.00228589179       -170.8571      0.962693985      99.1429002      0.191103654     -165.173999      0.191557963      -75.173999
                     0.962693985      99.1429002    0.00228589179       -170.8571      0.191557963      -75.173999      0.191103654     -165.173999
                     0.191103654     -165.173999      0.191557963      -75.173999      0.962696702     -159.490898   1.46551679e-17     -65.4948776
                     0.191557963      -75.173999      0.191103654     -165.173999   1.66583182e-24     -106.567222      0.962696702     -159.490898
1.07                0.0022851872     -171.094741      0.962397253      98.9052587      0.191847723     -165.265191      0.192303802     -75.2651914
                     0.962397253      98.9052587     0.0022851872     -171.094741      0.192303802     -75.2651914      0.191847723     -165.265191
                     0.191847723     -165.265191      0.192303802     -75.2651914      0.962399968     -159.435641   1.48295127e-17     -66.1659549
                     0.192303802     -75.2651914      0.191847723     -165.265191   1.58953079e-24     -106.566208      0.962399968     -159.435641
1.072              0.00228447778     -171.332082      0.962098481      98.6679181       0.19259377      -165.35617      0.193051622     -75.3561702
                     0.962098481      98.6679181    0.00228447778     -171.332082      0.193051622     -75.3561702       0.19259377      -165.35617
                      0.19259377      -165.35617      0.193051622     -75.3561702      0.962101196     -159.380258   1.50038826e-17     -66.8251909
                     0.193051622     -75.3561702       0.19259377      -165.35617   1.50764825e-24     -106.565193      0.962101196     -159.380258
1.074              0.00228376348     -171.569121      0.961797658      98.4308785      0.193341798     -165.446935      0.193801428     -75.4469352
                     0.961797658      98.4308785    0.00228376348     -171.569121      0.193801428     -75.4469352      0.193341798     -165.446935
                     0.193341798     -165.446935      0.193801428     -75.4469352      0.961800372     -159.324749    1.5178211e-17     -67.4729682
                     0.193801428     -75.4469352      0.193341798     -165.446935   1.42032406e-24     -106.564177      0.961800372     -159.324749
1.076              0.00228304428      -171.80586       0.96149477      98.1941402      0.194091814     -165.537486      0.194553227      -75.537486
                      0.96149477      98.1941402    0.00228304428      -171.80586      0.194553227      -75.537486      0.194091814     -165.537486
                     0.194091814     -165.537486      0.194553227      -75.537486      0.961497483     -159.269112   1.53524325e-17     -68.1096546
                     0.194553227      -75.537486      0.194091814     -165.537486   1.32769892e-24      -106.56316      0.961497483     -159.269112
1.078              0.00228232015     -172.042297      0.961189804      97.9577033      0.194843822     -165.627822      0.195307023     -75.6278221
                     0.961189804      97.9577033    0.00228232015     -172.042297      0.195307023     -75.6278221      0.194843822     -165.627822
                     0.194843822     -165.627822      0.195307023     -75.6278221      0.961192515     -159.213347   1.55264825e-17      -68.735604
                     0.195307023     -75.6278221      0.194843822     -165.627822   1.22991437e-24     -106.562143      0.961192515     -159.213347
1.08               0.00228159105     -172.278432      0.960882746      97.7215682      0.195597828     -165.717943      0.196062821     -75.7179432
                     0.960882746      97.7215682    0.00228159105     -172.278432      0.196062821     -75.7179432      0.195597828     -165.717943
                     0.195597828     -165.717943      0.196062821     -75.7179432      0.960885456     -159.157455   1.57002975e-17     -69.3511562
                     0.196062821     -75.7179432      0.195597828     -165.717943   1.12711276e-24     -106.561125      0.960885456     -159.157455
1.082              0.00228085695     -172.514265      0.960573582      97.4857349      0.196353837     -165.807849      0.196820627     -75.8078489
                     0.960573582      97.4857349    0.00228085695     -172.514265      0.196820627     -75.8078489      0.196353837     -165.807849
                     0.196353837     -165.807849      0.196820627     -75.8078489      0.960576291     -159.101433   1.58738147e-17     -69.9566377
                     0.196820627     -75.8078489      0.196353837     -165.807849   1.01943723e-24     -106.560107      0.960576291     -159.101433
1.084              0.00228011781     -172.749796      0.960262299      97.2502038      0.197111854     -165.897539      0.197580447     -75.8975388
                     0.960262299      97.2502038    0.00228011781     -172.749796      0.197580447     -75.8975388      0.197111854     -165.897539
                     0.197111854     -165.897539      0.197580447     -75.8975388      0.960265007     -159.045281   1.60469721e-17     -70.5523617
                     0.197580447     -75.8975388      0.197111854     -165.897539   9.07031673e-25     -106.559088      0.960265007     -159.045281
1.086              0.00227937361     -172.985025      0.959948883      97.0149751      0.197871886     -165.987013      0.198342285     -75.9870126
                     0.959948883      97.0149751    0.00227937361     -172.985025      0.198342285     -75.9870126      0.197871886     -165.987013
                     0.197871886     -165.987013      0.198342285     -75.9870126       0.95995159        -158.989    1.6219708e-17     -71.1386292
                     0.198342285     -75.9870126      0.197871886     -165.987013   7.90040823e-25     -106.558067       0.95995159        -158.989
1.088              0.00227862432     -173.219951      0.959633319       96.780049      0.198633936      -166.07627      0.199106147     -76.0762697
                     0.959633319       96.780049    0.00227862432     -173.219951      0.199106147     -76.0762697      0.198633936      -166.07627
                     0.198633936      -166.07627      0.199106147     -76.0762697      0.959636026     -158.932588   1.63919616e-17     -71.7157282
                     0.199106147     -76.0762697      0.198633936      -166.07627   6.68610088e-25     -106.557047      0.959636026     -158.932588
1.09               0.00227786989     -173.454574      0.959315595      96.5454258      0.199398011      -166.16531      0.199872038     -76.1653098
                     0.959315595      96.5454258    0.00227786989     -173.454574      0.199872038     -76.1653098      0.199398011      -166.16531
                     0.199398011      -166.16531      0.199872038     -76.1653098        0.9593183     -158.876045   1.65636723e-17     -72.2839353
                     0.199872038     -76.1653098      0.199398011      -166.16531   5.42885671e-25     -106.556026        0.9593183     -158.876045
1.092               0.0022771103     -173.688894      0.958995696      96.3111058      0.200164115     -166.254133      0.200639964     -76.2541326
                     0.958995696      96.3111058     0.0022771103     -173.688894      0.200639964     -76.2541326      0.200164115     -166.254133
                     0.200164115     -166.254133      0.200639964     -76.2541326        0.9589984     -158.819371   1.67347802e-17      -72.843515
                     0.200639964     -76.2541326      0.200164115     -166.254133   4.13014494e-25     -106.555004        0.9589984     -158.819371
1.094              0.00227634551     -173.922911      0.958673608      96.0770891      0.200932254     -166.342737      0.201409929     -76.3427375
                     0.958673608      96.0770891    0.00227634551     -173.922911      0.201409929     -76.3427375      0.200932254     -166.342737
                     0.200932254     -166.342737      0.201409929     -76.3427375      0.958676311     -158.762564   1.69052253e-17     -73.3947208
                     0.201409929     -76.3427375      0.200932254     -166.342737   2.79144155e-25     -106.553982      0.958676311     -158.762564
1.096              0.00227557549     -174.156624      0.958349317      95.8433762      0.201702434     -166.431124       0.20218194     -76.4311241
                     0.958349317      95.8433762    0.00227557549     -174.156624       0.20218194     -76.4311241      0.201702434     -166.431124
                     0.201702434     -166.431124       0.20218194     -76.4311241      0.958352018     -158.705624   1.70749482e-17     -73.9377952
                      0.20218194     -76.4311241      0.201702434     -166.431124   1.41423003e-25     -106.552958      0.958352018     -158.705624