! TOUCHSTONE file generated by CST DESIGN STUDIO
! Date and time: Tue Mar 24 01:05:59 2026
! Project name: C:\Users\ilya\AppData\Local\Temp\CSTDE1\Temp\DE25\Untitled_0.cst
! Tree item: Tasks\SPara1\S-Parameters
! Header version: 2024
! Port assignment regex: !\s*Touchstone port\s*([0-9]+)\s*=\s*(CST MWS port|CST DES external port|CST DES block port)\s*(.+)\s* \(\"(.*)\"\)(\s*mode\s*([0-9]+))?.*
! Touchstone port assignment:
! Touchstone port 1 = CST DES external port 1 ("")
! Touchstone port 2 = CST DES external port 2 ("")
! Touchstone port 3 = CST DES external port 3 ("")
! Touchstone port 4 = CST DES external port 4 ("")
# GHz S MA R 50
1                  0.00193912722      -120.11206      0.816655506       149.88794      0.407602233      -79.457108      0.408571223       10.542892
                     0.816655506       149.88794    0.00193912722      -120.11206      0.408571223       10.542892      0.407602233      -79.457108
                     0.407602233      -79.457108      0.408571223       10.542892      0.816657808     -38.8021558   5.77288107e-17      94.7332195
                     0.408571223       10.542892      0.407602233      -79.457108   3.81626798e-17      108.101124      0.816657808     -38.8021558
1.002              0.00193735671     -120.325479      0.815909862      149.674521      0.408346415     -79.6114541      0.409317174      10.3885459
                     0.815909862      149.674521    0.00193735671     -120.325479      0.409317174      10.3885459      0.408346415     -79.6114541
                     0.408346415     -79.6114541      0.409317174      10.3885459      0.815912163     -38.8974291   5.78741785e-17      95.7600461
                     0.409317174      10.3885459      0.408346415     -79.6114541   3.80063363e-17      108.710451      0.815912163     -38.8974291
1.004              0.00193558163     -120.538796      0.815162295      149.461204      0.409090477     -79.7658235      0.410063005      10.2341765
                     0.815162295      149.461204    0.00193558163     -120.538796      0.410063005      10.2341765      0.409090477     -79.7658235
                     0.409090477     -79.7658235      0.410063005      10.2341765      0.815164593     -38.9928513   5.81062685e-17      96.7834929
                     0.410063005      10.2341765      0.409090477     -79.7658235   3.78597466e-17      109.328738      0.815164593     -38.9928513
1.006              0.00193380197      -120.75201      0.814412799       149.24799       0.40983442     -79.9202167      0.410808717      10.0797833
                     0.814412799       149.24799    0.00193380197      -120.75201      0.410808717      10.0797833       0.40983442     -79.9202167
                      0.40983442     -79.9202167      0.410808717      10.0797833      0.814415095     -39.0884231   5.84252974e-17      97.7944454
                     0.410808717      10.0797833       0.40983442     -79.9202167   3.77233485e-17      109.955888      0.814415095     -39.0884231
1.008              0.00193201772     -120.965123      0.813661368      149.034877      0.410578245     -80.0746339       0.41155431      9.92536606
                     0.813661368      149.034877    0.00193201772     -120.965123       0.41155431      9.92536606      0.410578245     -80.0746339
                     0.410578245     -80.0746339       0.41155431      9.92536606      0.813663662     -39.1841452    5.8830506e-17      98.7840409
                      0.41155431      9.92536606      0.410578245     -80.0746339   3.75975978e-17      110.591764      0.813663662     -39.1841452
1.01               0.00193022886     -121.178133      0.812907998      148.821867      0.411321952     -80.2290757      0.412299785      9.77092429
                     0.812907998      148.821867    0.00193022886     -121.178133      0.412299785      9.77092429      0.411321952     -80.2290757
                     0.411321952     -80.2290757      0.412299785      9.77092429       0.81291029     -39.2800182   5.93201863e-17      99.7439039
                     0.412299785      9.77092429      0.411321952     -80.2290757   3.74829695e-17      111.236185       0.81291029     -39.2800182
1.012              0.00192843539     -121.391042      0.812152684      148.608958      0.412065541     -80.3835424      0.413045142      9.61645764
                     0.812152684      148.608958    0.00192843539     -121.391042      0.413045142      9.61645764      0.412065541     -80.3835424
                     0.412065541     -80.3835424      0.413045142      9.61645764      0.812154973     -39.3760429   5.98917371e-17      100.666354
                     0.413045142      9.61645764      0.412065541     -80.3835424   3.73799571e-17      111.888927      0.812154973     -39.3760429
1.014              0.00192663729     -121.603849       0.81139542      148.396151      0.412809013     -80.5380343      0.413790381      9.46196574
                      0.81139542      148.396151    0.00192663729     -121.603849      0.413790381      9.46196574      0.412809013     -80.5380343
                     0.412809013     -80.5380343      0.413790381      9.46196574      0.811397708       -39.47222   6.05417456e-17      101.544573
                     0.413790381      9.46196574      0.412809013     -80.5380343   3.72890738e-17      112.549711      0.811397708       -39.47222
1.016              0.00192483454     -121.816554      0.810636202      148.183446      0.413552367     -80.6925518      0.414535502      9.30744823
                     0.810636202      148.183446    0.00192483454     -121.816554      0.414535502      9.30744823      0.413552367     -80.6925518
                     0.413552367     -80.6925518      0.414535502      9.30744823      0.810638487       -39.56855   6.12660885e-17      102.372728
                     0.414535502      9.30744823      0.413552367     -80.6925518   3.72108522e-17       113.21821      0.810638487       -39.56855
1.018              0.00192302715     -122.029157      0.809875025      147.970843      0.414295604     -80.8470953      0.415280506      9.15290471
                     0.809875025      147.970843    0.00192302715     -122.029157      0.415280506      9.15290471      0.414295604     -80.8470953
                     0.414295604     -80.8470953      0.415280506      9.15290471      0.809877308     -39.6650338   6.20600476e-17       103.14604
                     0.415280506      9.15290471      0.414295604     -80.8470953   3.71458447e-17      113.894037      0.809877308     -39.6650338
1.02               0.00192121509     -122.241658      0.809111882      147.758342      0.415038725     -81.0016652      0.416025393      8.99833481
                     0.809111882      147.758342    0.00192121509     -122.241658      0.416025393      8.99833481      0.415038725     -81.0016652
                     0.415038725     -81.0016652      0.416025393      8.99833481      0.809114163     -39.7616719   6.29184328e-17      103.860815
                     0.416025393      8.99833481      0.415038725     -81.0016652   3.70946236e-17      114.576746      0.809114163     -39.7616719
1.022              0.00191939835     -122.454058      0.808346771      147.545942      0.415781728     -81.1562618      0.416770163      8.84373816
                     0.808346771      147.545942    0.00191939835     -122.454058      0.416770163      8.84373816      0.415781728     -81.1562618
                     0.415781728     -81.1562618      0.416770163      8.84373816      0.808349049     -39.8584652   6.38357065e-17      104.514421
                     0.416770163      8.84373816      0.415781728     -81.1562618    3.7057781e-17      115.265825      0.808349049     -39.8584652
1.024              0.00191757692     -122.666357      0.807579684      147.333643      0.416524616     -81.3108856      0.417514817      8.68911437
                     0.807579684      147.333643    0.00191757692     -122.666357      0.417514817      8.68911437      0.416524616     -81.3108856
                     0.416524616     -81.3108856      0.417514817      8.68911437       0.80758196     -39.9554143   6.48061057e-17      105.105236
                     0.417514817      8.68911437      0.416524616     -81.3108856   3.70359288e-17      115.960698       0.80758196     -39.9554143
1.026              0.00191575079     -122.878554      0.806810617      147.121446      0.417267387     -81.4655369      0.418259353      8.53446308
                     0.806810617      147.121446    0.00191575079     -122.878554      0.418259353      8.53446308      0.417267387     -81.4655369
                     0.417267387     -81.4655369      0.418259353      8.53446308      0.806812891     -40.0525199   6.58237555e-17      105.632571
                     0.418259353      8.53446308      0.417267387     -81.4655369    3.7029699e-17      116.660717      0.806812891     -40.0525199
1.028              0.00191391995     -123.090649      0.806039565      146.909351      0.418010041     -81.6202161      0.419003774      8.37978391
                     0.806039565      146.909351    0.00191391995     -123.090649      0.419003774      8.37978391      0.418010041     -81.6202161
                     0.418010041     -81.6202161      0.419003774      8.37978391      0.806041837     -40.1497827   6.68827721e-17      106.096565
                     0.419003774      8.37978391      0.418010041     -81.6202161   3.70397426e-17       117.36516      0.806041837     -40.1497827
1.03               0.00191208438     -123.302644      0.805266522      146.697356       0.41875258     -81.7749235      0.419748078      8.22507647
                     0.805266522      146.697356    0.00191208438     -123.302644      0.419748078      8.22507647       0.41875258     -81.7749235
                      0.41875258     -81.7749235      0.419748078      8.22507647      0.805268792     -40.2472035   6.79773536e-17      106.498077
                     0.419748078      8.22507647       0.41875258     -81.7749235   3.70667302e-17      118.073231      0.805268792     -40.2472035
1.032              0.00191024407     -123.514536      0.804491485      146.485464      0.419495003     -81.9296596      0.420492265      8.07034039
                     0.804491485      146.485464    0.00191024407     -123.514536      0.420492265      8.07034039      0.419495003     -81.9296596
                     0.419495003     -81.9296596      0.420492265      8.07034039      0.804493752     -40.3447828   6.91018566e-17      106.838574
                     0.420492265      8.07034039      0.419495003     -81.9296596    3.7111351e-17      118.784056      0.804493752     -40.3447828
1.034              0.00190839901     -123.726328      0.803714446      146.273672      0.420237309     -82.0844247      0.421236337       7.9155753
                     0.803714446      146.273672    0.00190839901     -123.726328      0.421236337       7.9155753      0.420237309     -82.0844247
                     0.420237309     -82.0844247      0.421236337       7.9155753      0.803716712     -40.4425215   7.02508589e-17      107.120016
                     0.421236337       7.9155753      0.420237309     -82.0844247   3.71743124e-17      119.496679      0.803716712     -40.4425215
1.036              0.00190654919     -123.938018      0.802935401      146.061982        0.4209795     -82.2392192      0.421980292      7.76078081
                     0.802935401      146.061982    0.00190654919     -123.938018      0.421980292      7.76078081        0.4209795     -82.2392192
                       0.4209795     -82.2392192      0.421980292      7.76078081      0.802937665     -40.5404202   7.14192089e-17       107.34475
                     0.421980292      7.76078081        0.4209795     -82.2392192   3.72563395e-17      120.210064      0.802937665     -40.5404202
1.038               0.0019046946     -124.149607      0.802154346      145.850393      0.421721575     -82.3940434      0.422724131      7.60595656
                     0.802154346      145.850393     0.0019046946     -124.149607      0.422724131      7.60595656      0.421721575     -82.3940434
                     0.421721575     -82.3940434      0.422724131      7.60595656      0.802156607     -40.6384798   7.26020625e-17      107.515411
                     0.422724131      7.60595656      0.421721575     -82.3940434   3.73581743e-17      120.923094      0.802156607     -40.6384798
1.04               0.00190283521     -124.361095      0.801371274      145.638905      0.422463534     -82.5488978      0.423467854      7.45110215
                     0.801371274      145.638905    0.00190283521     -124.361095      0.423467854      7.45110215      0.422463534     -82.5488978
                     0.422463534     -82.5488978      0.423467854      7.45110215      0.801373533     -40.7367008   7.37949081e-17      107.634839
                     0.423467854      7.45110215      0.422463534     -82.5488978   3.74805745e-17      121.634566      0.801373533     -40.7367008
1.042              0.00190097103     -124.572482      0.800586181      145.427518      0.423205377     -82.7037828       0.42421146      7.29621722
                     0.800586181      145.427518    0.00190097103     -124.572482       0.42421146      7.29621722      0.423205377     -82.7037828
                     0.423205377     -82.7037828       0.42421146      7.29621722      0.800588437      -40.835084   7.49935826e-17      107.705999
                      0.42421146      7.29621722      0.423205377     -82.7037828   3.76243131e-17      122.343197      0.800588437      -40.835084
1.044              0.00189910203     -124.783767       0.79979906      145.216233      0.423947104     -82.8586986       0.42495495       7.1413014
                      0.79979906      145.216233    0.00189910203     -124.783767       0.42495495       7.1413014      0.423947104     -82.8586986
                     0.423947104     -82.8586986       0.42495495       7.1413014      0.799801315     -40.9336301   7.61942775e-17      107.731916
                      0.42495495       7.1413014      0.423947104     -82.8586986   3.77901769e-17       123.04762      0.799801315     -40.9336301
1.046              0.00189722821     -124.994952      0.799009908      145.005048      0.424688714     -83.0136457      0.425698324      6.98635429
                     0.799009908      145.005048    0.00189722821     -124.994952      0.425698324      6.98635429      0.424688714     -83.0136457
                     0.424688714     -83.0136457      0.425698324      6.98635429      0.799012161     -41.0323399   7.73935392e-17      107.715626
                     0.425698324      6.98635429      0.424688714     -83.0136457   3.79789651e-17      123.746389      0.799012161     -41.0323399
1.048              0.00189534955     -125.206035      0.798218719      144.793965      0.425430209     -83.1686245      0.426441581      6.83137553
                     0.798218719      144.793965    0.00189534955     -125.206035      0.426441581      6.83137553      0.425430209     -83.1686245
                     0.425430209     -83.1686245      0.426441581      6.83137553      0.798220969     -41.1312141   7.85882622e-17      107.660128
                     0.426441581      6.83137553      0.425430209     -83.1686245   3.81914882e-17      124.437977      0.798220969     -41.1312141
1.05               0.00189346604     -125.417017      0.797425487      144.582983      0.426171587     -83.3236353      0.427184722      6.67636474
                     0.797425487      144.582983    0.00189346604     -125.417017      0.427184722      6.67636474      0.426171587     -83.3236353
                     0.426171587     -83.3236353      0.427184722      6.67636474      0.797427735     -41.2302534   7.97756787e-17      107.568351
                     0.427184722      6.67636474      0.426171587     -83.3236353   3.84285665e-17      125.120782      0.797427735     -41.2302534
1.052              0.00189157767     -125.627898      0.796630207      144.372102      0.426912849     -83.4786785      0.427927745      6.52132153
                     0.796630207      144.372102    0.00189157767     -125.627898      0.427927745      6.52132153      0.426912849     -83.4786785
                     0.426912849     -83.4786785      0.427927745      6.52132153      0.796632453     -41.3294585    8.0953344e-17      107.443128
                     0.427927745      6.52132153      0.426912849     -83.4786785   3.86910279e-17      125.793129      0.796632453     -41.3294585
1.054              0.00188968443     -125.838679      0.795832874      144.161321      0.427653993     -83.6337544      0.428670652      6.36624555
                     0.795832874      144.161321    0.00188968443     -125.838679      0.428670652      6.36624555      0.427653993     -83.6337544
                     0.427653993     -83.6337544      0.428670652      6.36624555      0.795835117     -41.4288303   8.21191196e-17      107.287174
                     0.428670652      6.36624555      0.427653993     -83.6337544   3.89797067e-17      126.453272      0.795835117     -41.4288303
1.056              0.00188778629     -126.049358      0.795033482      143.950642      0.428395021     -83.7888636      0.429413442       6.2111364
                     0.795033482      143.950642    0.00188778629     -126.049358      0.429413442       6.2111364      0.428395021     -83.7888636
                     0.428395021     -83.7888636      0.429413442       6.2111364      0.795035724     -41.5283693   8.32711545e-17      107.103078
                     0.429413442       6.2111364      0.428395021     -83.7888636    3.9295441e-17      127.099402      0.795035724     -41.5283693
1.058              0.00188588326     -126.259936      0.794232027      143.740064      0.429135932     -83.9440063      0.430156114      6.05599372
                     0.794232027      143.740064    0.00188588326     -126.259936      0.430156114      6.05599372      0.429135932     -83.9440063
                     0.429135932     -83.9440063      0.430156114      6.05599372      0.794234266     -41.6280765   8.44078654e-17      106.893287
                     0.430156114      6.05599372      0.429135932     -83.9440063   3.96390703e-17      127.729646      0.794234266     -41.6280765
1.06               0.00188397531     -126.470413      0.793428503      143.529587      0.429876725     -84.0991829      0.430898668      5.90081713
                     0.793428503      143.529587    0.00188397531     -126.470413      0.430898668      5.90081713      0.429876725     -84.0991829
                     0.429876725     -84.0991829      0.430898668      5.90081713       0.79343074     -41.7279524   8.55279162e-17      106.660105
                     0.430898668      5.90081713      0.429876725     -84.0991829   4.00114335e-17      128.342078       0.79343074     -41.7279524
1.062              0.00188206244      -126.68079      0.792622905       143.31921      0.430617401     -84.2543938      0.431641104      5.74560624
                     0.792622905       143.31921    0.00188206244      -126.68079      0.431641104      5.74560624      0.430617401     -84.2543938
                     0.430617401     -84.2543938      0.431641104      5.74560624      0.792625139     -41.8279979   8.66301978e-17      106.405692
                     0.431641104      5.74560624      0.430617401     -84.2543938   4.04133656e-17       128.93472      0.792625139     -41.8279979
1.064              0.00188014463     -126.891065      0.791815227      143.108935      0.431357958     -84.4096393      0.432383422      5.59036069
                     0.791815227      143.108935    0.00188014463     -126.891065      0.432383422      5.59036069      0.431357958     -84.4096393
                     0.431357958     -84.4096393      0.432383422      5.59036069      0.791817459     -41.9282137   8.77138081e-17      106.132061
                     0.432383422      5.59036069      0.431357958     -84.4096393   4.08456945e-17      129.505552      0.791817459     -41.9282137
1.066              0.00187822187     -127.101239      0.791005464      142.898761      0.432098397     -84.5649199      0.433125622       5.4350801
                     0.791005464      142.898761    0.00187822187     -127.101239      0.433125622       5.4350801      0.432098397     -84.5649199
                     0.432098397     -84.5649199      0.433125622       5.4350801      0.791007693     -42.0286006   8.87780321e-17      105.841087
                     0.433125622       5.4350801      0.432098397     -84.5649199   4.13092375e-17      130.052511      0.791007693     -42.0286006
1.068              0.00187629414     -127.311312       0.79019361      142.688688      0.432838717     -84.7202359      0.433867702      5.27976409
                      0.79019361      142.688688    0.00187629414     -127.311312      0.433867702      5.27976409      0.432838717     -84.7202359
                     0.432838717     -84.7202359      0.433867702      5.27976409      0.790195838     -42.1291593   8.98223236e-17      105.534504
                     0.433867702      5.27976409      0.432838717     -84.7202359   4.18047971e-17      130.573505      0.790195838     -42.1291593
1.07               0.00187436144     -127.521285      0.789379661      142.478715      0.433578919     -84.8755877      0.434609663       5.1244123
                     0.789379661      142.478715    0.00187436144     -127.521285      0.434609663       5.1244123      0.433578919     -84.8755877
                     0.433578919     -84.8755877      0.434609663       5.1244123      0.789381886     -42.2298906   9.08462875e-17      105.213916
                     0.434609663       5.1244123      0.433578919     -84.8755877   4.23331566e-17      131.066414      0.789381886     -42.2298906
1.072              0.00187242375     -127.731156      0.788563611      142.268844         0.434319     -85.0309757      0.435351504      4.96902433
                     0.788563611      142.268844    0.00187242375     -127.731156      0.435351504      4.96902433         0.434319     -85.0309757
                        0.434319     -85.0309757      0.435351504      4.96902433      0.788565834     -42.3307952   9.18496626e-17      104.880801
                     0.435351504      4.96902433         0.434319     -85.0309757   4.28950743e-17      131.529098      0.788565834     -42.3307952
1.074              0.00187048106     -127.940926      0.787745454      142.059074      0.435058962     -85.1864002      0.436093224      4.81359983
                     0.787745454      142.059074    0.00187048106     -127.940926      0.436093224      4.81359983      0.435058962     -85.1864002
                     0.435058962     -85.1864002      0.436093224      4.81359983      0.787747675      -42.431874   9.28323067e-17      104.536517
                     0.436093224      4.81359983      0.435058962     -85.1864002   4.34912781e-17      131.959399      0.787747675      -42.431874
1.076              0.00186853335     -128.150596      0.786925186      141.849404      0.435798803     -85.3418616      0.436834824      4.65813841
                     0.786925186      141.849404    0.00186853335     -128.150596      0.436834824      4.65813841      0.435798803     -85.3418616
                     0.435798803     -85.3418616      0.436834824      4.65813841      0.786927404     -42.5331275   9.37941816e-17      104.182311
                     0.436834824      4.65813841      0.435798803     -85.3418616   4.41224579e-17      132.355155      0.786927404     -42.5331275
1.078              0.00186658062     -128.360164        0.7861028      141.639836      0.436538523     -85.4973603      0.437576303       4.5026397
                       0.7861028      141.639836    0.00186658062     -128.360164      0.437576303       4.5026397      0.436538523     -85.4973603
                     0.436538523     -85.4973603      0.437576303       4.5026397      0.786105017     -42.6345568   9.47353403e-17      103.819322
                     0.437576303       4.5026397      0.436538523     -85.4973603   4.47892579e-17      132.714196      0.786105017     -42.6345568
1.08               0.00186462285     -128.569631      0.785278292      141.430369      0.437278122     -85.6528967       0.43831766      4.34710333
                     0.785278292      141.430369    0.00186462285     -128.569631       0.43831766      4.34710333      0.437278122     -85.6528967
                     0.437278122     -85.6528967       0.43831766      4.34710333      0.785280506     -42.7361624   9.56559144e-17      103.448593
                      0.43831766      4.34710333      0.437278122     -85.6528967   4.54922677e-17      133.034357      0.785280506     -42.7361624
1.082              0.00186266002     -128.778997      0.784451657      141.221003      0.438017598     -85.8084711      0.439058894      4.19152892
                     0.784451657      141.221003    0.00186266002     -128.778997      0.439058894      4.19152892      0.438017598     -85.8084711
                     0.438017598     -85.8084711      0.439058894      4.19152892      0.784453868     -42.8379452   9.65561032e-17      103.071074
                     0.439058894      4.19152892      0.438017598     -85.8084711   4.62320113e-17      133.313479      0.784453868     -42.8379452
1.084              0.00186069213     -128.988262      0.783622887      141.011738      0.438756952     -85.9640839      0.439800006      4.03591609
                     0.783622887      141.011738    0.00186069213     -128.988262      0.439800006      4.03591609      0.438756952     -85.9640839
                     0.438756952     -85.9640839      0.439800006      4.03591609      0.783625097      -42.939906   9.74361637e-17       102.68763
                     0.439800006      4.03591609      0.438756952     -85.9640839   4.70089355e-17      133.549418      0.783625097      -42.939906
1.086              0.00185871916     -129.197425       0.78279198      140.802575      0.439496183     -86.1197355      0.440540994      3.88026449
                      0.78279198      140.802575    0.00185871916     -129.197425      0.440540994      3.88026449      0.439496183     -86.1197355
                     0.439496183     -86.1197355      0.440540994      3.88026449      0.782794186     -43.0420455   9.82964015e-17      102.299047
                     0.440540994      3.88026449      0.439496183     -86.1197355   4.78233961e-17      133.740045      0.782794186     -43.0420455
1.088               0.0018567411     -129.406488      0.781958928      140.593512      0.440235289     -86.2754263      0.441281858      3.72457373
                     0.781958928      140.593512     0.0018567411     -129.406488      0.441281858      3.72457373      0.440235289     -86.2754263
                     0.440235289     -86.2754263      0.441281858      3.72457373      0.781961132     -43.1443646   9.91371629e-17       101.90604
                     0.441281858      3.72457373      0.440235289     -86.2754263   4.86756424e-17      133.883258      0.781961132     -43.1443646
1.09               0.00185475794     -129.615449      0.781123726      140.384551      0.440974271     -86.4311566      0.442022597      3.56884344
                     0.781123726      140.384551    0.00185475794     -129.615449      0.442022597      3.56884344      0.440974271     -86.4311566
                     0.440974271     -86.4311566      0.442022597      3.56884344      0.781125928      -43.246864   9.99588269e-17      101.509253
                     0.442022597      3.56884344      0.440974271     -86.4311566   4.95657995e-17      133.976982      0.781125928      -43.246864
1.092              0.00185276966     -129.824309       0.78028637      140.175691      0.441713128     -86.5869268       0.44276321      3.41307324
                      0.78028637      140.175691    0.00185276966     -129.824309       0.44276321      3.41307324      0.441713128     -86.5869268
                     0.441713128     -86.5869268       0.44276321      3.41307324       0.78028857     -43.3495444     1.007618e-16      101.109273
                      0.44276321      3.41307324      0.441713128     -86.5869268   5.04938485e-17       134.01918       0.78028857     -43.3495444
1.094              0.00185077625     -130.033068      0.779446853      139.966932      0.442451859     -86.7427372      0.443503697      3.25726278
                     0.779446853      139.966932    0.00185077625     -130.033068      0.443503697      3.25726278      0.442451859     -86.7427372
                     0.442451859     -86.7427372      0.443503697      3.25726278      0.779449051     -43.4524068   1.01546509e-16      100.706626
                     0.443503697      3.25726278      0.442451859     -86.7427372   5.14596045e-17      134.007856      0.779449051     -43.4524068
1.096              0.00184877769     -130.241725      0.778605171      139.758275      0.443190464     -86.8985883      0.444244057      3.10141167
                     0.778605171      139.758275    0.00184877769     -130.241725      0.444244057      3.10141167      0.443190464     -86.8985883
                     0.443190464     -86.8985883      0.444244057      3.10141167      0.778607366     -43.5554519   1.02313396e-16      100.301789
                     0.444244057      3.10141167      0.443190464     -86.8985883   5.24626919e-17      133.941063      0.778607366     -43.5554519