! TOUCHSTONE file generated by CST DESIGN STUDIO
! Date and time: Tue Mar 24 00:49:26 2026
! Project name: C:\Users\ilya\AppData\Local\Temp\CSTDE1\Temp\DE25\Untitled_0.cst
! Tree item: Tasks\SPara1\S-Parameters
! Header version: 2024
! Port assignment regex: !\s*Touchstone port\s*([0-9]+)\s*=\s*(CST MWS port|CST DES external port|CST DES block port)\s*(.+)\s* \(\"(.*)\"\)(\s*mode\s*([0-9]+))?.*
! Touchstone port assignment:
! Touchstone port 1 = CST DES external port 1 ("")
! Touchstone port 2 = CST DES external port 2 ("")
! Touchstone port 3 = CST DES external port 3 ("")
! Touchstone port 4 = CST DES external port 4 ("")
# GHz S MA R 50
1                              0               0                0               0      0.706266781             -90      0.707945784               0
                               0               0                0               0      0.707945784               0      0.706266781             -90
                     0.706266781             -90      0.707945784               0                0               0                0               0
                     0.707945784               0      0.706266781             -90                0               0                0               0
1.002                          0               0                0               0      0.706266781             -90      0.707945784               0
                               0               0                0               0      0.707945784               0      0.706266781             -90
                     0.706266781             -90      0.707945784               0                0               0                0               0
                     0.707945784               0      0.706266781             -90                0               0                0               0
1.004                          0               0                0               0      0.706266781             -90      0.707945784               0
                               0               0                0               0      0.707945784               0      0.706266781             -90
                     0.706266781             -90      0.707945784               0                0               0                0               0
                     0.707945784               0      0.706266781             -90                0               0                0               0
1.006                          0               0                0               0      0.706266781             -90      0.707945784               0
                               0               0                0               0      0.707945784               0      0.706266781             -90
                     0.706266781             -90      0.707945784               0                0               0                0               0
                     0.707945784               0      0.706266781             -90                0               0                0               0
1.008                          0               0                0               0      0.706266781             -90      0.707945784               0
                               0               0                0               0      0.707945784               0      0.706266781             -90
                     0.706266781             -90      0.707945784               0                0               0                0               0
                     0.707945784               0      0.706266781             -90                0               0                0               0
1.01                           0               0                0               0      0.706266781             -90      0.707945784               0
                               0               0                0               0      0.707945784               0      0.706266781             -90
                     0.706266781             -90      0.707945784               0                0               0                0               0
                     0.707945784               0      0.706266781             -90                0               0                0               0
1.012                          0               0                0               0      0.706266781             -90      0.707945784               0
                               0               0                0               0      0.707945784               0      0.706266781             -90
                     0.706266781             -90      0.707945784               0                0               0                0               0
                     0.707945784               0      0.706266781             -90                0               0                0               0
1.014                          0               0                0               0      0.706266781             -90      0.707945784               0
                               0               0                0               0      0.707945784               0      0.706266781             -90
                     0.706266781             -90      0.707945784               0                0               0                0               0
                     0.707945784               0      0.706266781             -90                0               0                0               0
1.016                          0               0                0               0      0.706266781             -90      0.707945784               0
                               0               0                0               0      0.707945784               0      0.706266781             -90
                     0.706266781             -90      0.707945784               0                0               0                0               0
                     0.707945784               0      0.706266781             -90                0               0                0               0
1.018                          0               0                0               0      0.706266781             -90      0.707945784               0
                               0               0                0               0      0.707945784               0      0.706266781             -90
                     0.706266781             -90      0.707945784               0                0               0                0               0
                     0.707945784               0      0.706266781             -90                0               0                0               0
1.02                           0               0                0               0      0.706266781             -90      0.707945784               0
                               0               0                0               0      0.707945784               0      0.706266781             -90
                     0.706266781             -90      0.707945784               0                0               0                0               0
                     0.707945784               0      0.706266781             -90                0               0                0               0
1.022                          0               0                0               0      0.706266781             -90      0.707945784               0
                               0               0                0               0      0.707945784               0      0.706266781             -90
                     0.706266781             -90      0.707945784               0                0               0                0               0
                     0.707945784               0      0.706266781             -90                0               0                0               0
1.024                          0               0                0               0      0.706266781             -90      0.707945784               0
                               0               0                0               0      0.707945784               0      0.706266781             -90
                     0.706266781             -90      0.707945784               0                0               0                0               0
                     0.707945784               0      0.706266781             -90                0               0                0               0
1.026                          0               0                0               0      0.706266781             -90      0.707945784               0
                               0               0                0               0      0.707945784               0      0.706266781             -90
                     0.706266781             -90      0.707945784               0                0               0                0               0
                     0.707945784               0      0.706266781             -90                0               0                0               0
1.028                          0               0                0               0      0.706266781             -90      0.707945784               0
                               0               0                0               0      0.707945784               0      0.706266781             -90
                     0.706266781             -90      0.707945784               0                0               0                0               0
                     0.707945784               0      0.706266781             -90                0               0                0               0
1.03                           0               0                0               0      0.706266781             -90      0.707945784               0
                               0               0                0               0      0.707945784               0      0.706266781             -90
                     0.706266781             -90      0.707945784               0                0               0                0               0
                     0.707945784               0      0.706266781             -90                0               0                0               0
1.032                          0               0                0               0      0.706266781             -90      0.707945784               0
                               0               0                0               0      0.707945784               0      0.706266781             -90
                     0.706266781             -90      0.707945784               0                0               0                0               0
                     0.707945784               0      0.706266781             -90                0               0                0               0
1.034                          0               0                0               0      0.706266781             -90      0.707945784               0
                               0               0                0               0      0.707945784               0      0.706266781             -90
                     0.706266781             -90      0.707945784               0                0               0                0               0
                     0.707945784               0      0.706266781             -90                0               0                0               0
1.036                          0               0                0               0      0.706266781             -90      0.707945784               0
                               0               0                0               0      0.707945784               0      0.706266781             -90
                     0.706266781             -90      0.707945784               0                0               0                0               0
                     0.707945784               0      0.706266781             -90                0               0                0               0
1.038                          0               0                0               0      0.706266781             -90      0.707945784               0
                               0               0                0               0      0.707945784               0      0.706266781             -90
                     0.706266781             -90      0.707945784               0                0               0                0               0
                     0.707945784               0      0.706266781             -90                0               0                0               0
1.04                           0               0                0               0      0.706266781             -90      0.707945784               0
                               0               0                0               0      0.707945784               0      0.706266781             -90
                     0.706266781             -90      0.707945784               0                0               0                0               0
                     0.707945784               0      0.706266781             -90                0               0                0               0
1.042                          0               0                0               0      0.706266781             -90      0.707945784               0
                               0               0                0               0      0.707945784               0      0.706266781             -90
                     0.706266781             -90      0.707945784               0                0               0                0               0
                     0.707945784               0      0.706266781             -90                0               0                0               0
1.044                          0               0                0               0      0.706266781             -90      0.707945784               0
                               0               0                0               0      0.707945784               0      0.706266781             -90
                     0.706266781             -90      0.707945784               0                0               0                0               0
                     0.707945784               0      0.706266781             -90                0               0                0               0
1.046                          0               0                0               0      0.706266781             -90      0.707945784               0
                               0               0                0               0      0.707945784               0      0.706266781             -90
                     0.706266781             -90      0.707945784               0                0               0                0               0
                     0.707945784               0      0.706266781             -90                0               0                0               0
1.048                          0               0                0               0      0.706266781             -90      0.707945784               0
                               0               0                0               0      0.707945784               0      0.706266781             -90
                     0.706266781             -90      0.707945784               0                0               0                0               0
                     0.707945784               0      0.706266781             -90                0               0                0               0
1.05                           0               0                0               0      0.706266781             -90      0.707945784               0
                               0               0                0               0      0.707945784               0      0.706266781             -90
                     0.706266781             -90      0.707945784               0                0               0                0               0
                     0.707945784               0      0.706266781             -90                0               0                0               0
1.052                          0               0                0               0      0.706266781             -90      0.707945784               0
                               0               0                0               0      0.707945784               0      0.706266781             -90
                     0.706266781             -90      0.707945784               0                0               0                0               0
                     0.707945784               0      0.706266781             -90                0               0                0               0
1.054                          0               0                0               0      0.706266781             -90      0.707945784               0
                               0               0                0               0      0.707945784               0      0.706266781             -90
                     0.706266781             -90      0.707945784               0                0               0                0               0
                     0.707945784               0      0.706266781             -90                0               0                0               0
1.056                          0               0                0               0      0.706266781             -90      0.707945784               0
                               0               0                0               0      0.707945784               0      0.706266781             -90
                     0.706266781             -90      0.707945784               0                0               0                0               0
                     0.707945784               0      0.706266781             -90                0               0                0               0
1.058                          0               0                0               0      0.706266781             -90      0.707945784               0
                               0               0                0               0      0.707945784               0      0.706266781             -90
                     0.706266781             -90      0.707945784               0                0               0                0               0
                     0.707945784               0      0.706266781             -90                0               0                0               0
1.06                           0               0                0               0      0.706266781             -90      0.707945784               0
                               0               0                0               0      0.707945784               0      0.706266781             -90
                     0.706266781             -90      0.707945784               0                0               0                0               0
                     0.707945784               0      0.706266781             -90                0               0                0               0
1.062                          0               0                0               0      0.706266781             -90      0.707945784               0
                               0               0                0               0      0.707945784               0      0.706266781             -90
                     0.706266781             -90      0.707945784               0                0               0                0               0
                     0.707945784               0      0.706266781             -90                0               0                0               0
1.064                          0               0                0               0      0.706266781             -90      0.707945784               0
                               0               0                0               0      0.707945784               0      0.706266781             -90
                     0.706266781             -90      0.707945784               0                0               0                0               0
                     0.707945784               0      0.706266781             -90                0               0                0               0
1.066                          0               0                0               0      0.706266781             -90      0.707945784               0
                               0               0                0               0      0.707945784               0      0.706266781             -90
                     0.706266781             -90      0.707945784               0                0               0                0               0
                     0.707945784               0      0.706266781             -90                0               0                0               0
1.068                          0               0                0               0      0.706266781             -90      0.707945784               0
                               0               0                0               0      0.707945784               0      0.706266781             -90
                     0.706266781             -90      0.707945784               0                0               0                0               0
                     0.707945784               0      0.706266781             -90                0               0                0               0
1.07                           0               0                0               0      0.706266781             -90      0.707945784               0
                               0               0                0               0      0.707945784               0      0.706266781             -90
                     0.706266781             -90      0.707945784               0                0               0                0               0
                     0.707945784               0      0.706266781             -90                0               0                0               0
1.072                          0               0                0               0      0.706266781             -90      0.707945784               0
                               0               0                0               0      0.707945784               0      0.706266781             -90
                     0.706266781             -90      0.707945784               0                0               0                0               0
                     0.707945784               0      0.706266781             -90                0               0                0               0
1.074                          0               0                0               0      0.706266781             -90      0.707945784               0
                               0               0                0               0      0.707945784               0      0.706266781             -90
                     0.706266781             -90      0.707945784               0                0               0                0               0
                     0.707945784               0      0.706266781             -90                0               0                0               0
1.076                          0               0                0               0      0.706266781             -90      0.707945784               0
                               0               0                0               0      0.707945784               0      0.706266781             -90
                     0.706266781             -90      0.707945784               0                0               0                0               0
                     0.707945784               0      0.706266781             -90                0               0                0               0
1.078                          0               0                0               0      0.706266781             -90      0.707945784               0
                               0               0                0               0      0.707945784               0      0.706266781             -90
                     0.706266781             -90      0.707945784               0                0               0                0               0
                     0.707945784               0      0.706266781             -90                0               0                0               0
1.08                           0               0                0               0      0.706266781             -90      0.707945784               0
                               0               0                0               0      0.707945784               0      0.706266781             -90
                     0.706266781             -90      0.707945784               0                0               0                0               0
                     0.707945784               0      0.706266781             -90                0               0                0               0
1.082                          0               0                0               0      0.706266781             -90      0.707945784               0
                               0               0                0               0      0.707945784               0      0.706266781             -90
                     0.706266781             -90      0.707945784               0                0               0                0               0
                     0.707945784               0      0.706266781             -90                0               0                0               0
1.084                          0               0                0               0      0.706266781             -90      0.707945784               0
                               0               0                0               0      0.707945784               0      0.706266781             -90
                     0.706266781             -90      0.707945784               0                0               0                0               0
                     0.707945784               0      0.706266781             -90                0               0                0               0
1.086                          0               0                0               0      0.706266781             -90      0.707945784               0
                               0               0                0               0      0.707945784               0      0.706266781             -90
                     0.706266781             -90      0.707945784               0                0               0                0               0
                     0.707945784               0      0.706266781             -90                0               0                0               0
1.088                          0               0                0               0      0.706266781             -90      0.707945784               0
                               0               0                0               0      0.707945784               0      0.706266781             -90
                     0.706266781             -90      0.707945784               0                0               0                0               0
                     0.707945784               0      0.706266781             -90                0               0                0               0
1.09                           0               0                0               0      0.706266781             -90      0.707945784               0
                               0               0                0               0      0.707945784               0      0.706266781             -90
                     0.706266781             -90      0.707945784               0                0               0                0               0
                     0.707945784               0      0.706266781             -90                0               0                0               0
1.092                          0               0                0               0      0.706266781             -90      0.707945784               0
                               0               0                0               0      0.707945784               0      0.706266781             -90
                     0.706266781             -90      0.707945784               0                0               0                0               0
                     0.707945784               0      0.706266781             -90                0               0                0               0
1.094                          0               0                0               0      0.706266781             -90      0.707945784               0
                               0               0                0               0      0.707945784               0      0.706266781             -90
                     0.706266781             -90      0.707945784               0                0               0                0               0
                     0.707945784               0      0.706266781             -90                0               0                0               0
1.096                          0               0                0               0      0.706266781             -90      0.707945784               0
                               0               0                0               0      0.707945784               0      0.706266781             -90
                     0.706266781             -90      0.707945784               0                0               0                0               0
                     0.707945784               0      0.706266781             -90                0               0                0               0